
     Program PROJWFC v.5.0.1 starts on  9Aug2013 at 15:59:38 

     This program is part of the open-source Quantum ESPRESSO suite
     for quantum simulation of materials; please cite
         "P. Giannozzi et al., J. Phys.:Condens. Matter 21 395502 (2009);
          URL http://www.quantum-espresso.org", 
     in publications or presentations arising from this work. More details at
     http://www.quantum-espresso.org/quote.php

     Parallel version (MPI), running on     2 processors
     R & G space division:  proc/pool =    2

   Info: using nr1, nr2, nr3 values from input

   Info: using nr1s, nr2s, nr3s values from input

     IMPORTANT: XC functional enforced from input :
     Exchange-correlation      = PBE ( 1 4 3 4 0)
     EXX-fraction              =        0.00
     Any further DFT definition will be discarded
     Please, verify this is what you really want

               file C.pbe-rrkjus.UPF: wavefunction(s)  2S 2P renormalized
               file H.pbe-rrkjus.UPF: wavefunction(s)  1S renormalized
 
     Parallelization info
     --------------------
     sticks:   dense  smooth     PW     G-vecs:    dense   smooth      PW
     Min        6875    2748    683               607139   153560   19199
     Max        6878    2749    686               607146   153635   19202
     Sum       13753    5497   1369              1214285   307195   38401
     Tot        6877    2749    685
 

     negative rho (up, down):  0.633E-05 0.634E-05

     Gaussian broadening (read from file): ngauss,degauss=   0    0.005000


     Calling projwave .... 
     gamma-point specific algorithms are used

     Atomic states used for projection
     (read from pseudopotential files):

     state #   1: atom   1 (C  ), wfc  1 (l=0 m= 1)
     state #   2: atom   1 (C  ), wfc  2 (l=1 m= 1)
     state #   3: atom   1 (C  ), wfc  2 (l=1 m= 2)
     state #   4: atom   1 (C  ), wfc  2 (l=1 m= 3)
     state #   5: atom   2 (C  ), wfc  1 (l=0 m= 1)
     state #   6: atom   2 (C  ), wfc  2 (l=1 m= 1)
     state #   7: atom   2 (C  ), wfc  2 (l=1 m= 2)
     state #   8: atom   2 (C  ), wfc  2 (l=1 m= 3)
     state #   9: atom   3 (C  ), wfc  1 (l=0 m= 1)
     state #  10: atom   3 (C  ), wfc  2 (l=1 m= 1)
     state #  11: atom   3 (C  ), wfc  2 (l=1 m= 2)
     state #  12: atom   3 (C  ), wfc  2 (l=1 m= 3)
     state #  13: atom   4 (C  ), wfc  1 (l=0 m= 1)
     state #  14: atom   4 (C  ), wfc  2 (l=1 m= 1)
     state #  15: atom   4 (C  ), wfc  2 (l=1 m= 2)
     state #  16: atom   4 (C  ), wfc  2 (l=1 m= 3)
     state #  17: atom   5 (C  ), wfc  1 (l=0 m= 1)
     state #  18: atom   5 (C  ), wfc  2 (l=1 m= 1)
     state #  19: atom   5 (C  ), wfc  2 (l=1 m= 2)
     state #  20: atom   5 (C  ), wfc  2 (l=1 m= 3)
     state #  21: atom   6 (C  ), wfc  1 (l=0 m= 1)
     state #  22: atom   6 (C  ), wfc  2 (l=1 m= 1)
     state #  23: atom   6 (C  ), wfc  2 (l=1 m= 2)
     state #  24: atom   6 (C  ), wfc  2 (l=1 m= 3)
     state #  25: atom   7 (H  ), wfc  1 (l=0 m= 1)
     state #  26: atom   8 (H  ), wfc  1 (l=0 m= 1)
     state #  27: atom   9 (H  ), wfc  1 (l=0 m= 1)
     state #  28: atom  10 (H  ), wfc  1 (l=0 m= 1)
     state #  29: atom  11 (H  ), wfc  1 (l=0 m= 1)
     state #  30: atom  12 (H  ), wfc  1 (l=0 m= 1)

 k =   0.0000000000  0.0000000000  0.0000000000
==== e(   1) =   -20.73445 eV ==== 
     psi = 0.124*[#   1]+0.124*[#   5]+0.124*[#   9]+0.124*[#  13]+0.124*[#  17]+
          +0.124*[#  21]+0.026*[#   4]+0.026*[#  16]+0.019*[#   7]+0.019*[#  11]+
          +0.019*[#  19]+0.019*[#  23]+0.014*[#  25]+0.014*[#  26]+0.014*[#  27]+
          +0.014*[#  28]+0.014*[#  29]+0.014*[#  30]+0.006*[#   8]+0.006*[#  12]+
          +0.006*[#  20]+0.006*[#  24]+
    |psi|^2 = 0.981
==== e(   2) =   -17.95869 eV ==== 
     psi = 0.159*[#   9]+0.159*[#  21]+0.156*[#   5]+0.156*[#  17]+0.080*[#   3]+
          +0.080*[#  15]+0.029*[#  27]+0.029*[#  30]+0.028*[#  26]+0.028*[#  29]+
          +0.017*[#   8]+0.017*[#  20]+0.017*[#  12]+0.017*[#  24]+0.003*[#   7]+
          +0.003*[#  19]+0.003*[#  11]+0.003*[#  23]+
    |psi|^2 = 0.985
==== e(   3) =   -17.95740 eV ==== 
     psi = 0.210*[#   1]+0.210*[#  13]+0.054*[#   5]+0.054*[#  17]+0.051*[#   9]+
          +0.051*[#  21]+0.043*[#  12]+0.043*[#  24]+0.042*[#   8]+0.042*[#  20]+
          +0.038*[#  25]+0.038*[#  28]+0.017*[#  11]+0.017*[#  23]+0.017*[#   7]+
          +0.017*[#  19]+0.010*[#  26]+0.010*[#  29]+0.009*[#  27]+0.009*[#  30]+
    |psi|^2 = 0.985
==== e(   4) =   -14.36530 eV ==== 
     psi = 0.107*[#   1]+0.107*[#  13]+0.060*[#  12]+0.060*[#  24]+0.059*[#   8]+
          +0.059*[#  20]+0.053*[#   7]+0.053*[#  11]+0.053*[#  19]+0.053*[#  23]+
          +0.053*[#  25]+0.053*[#  28]+0.027*[#   5]+0.027*[#  17]+0.027*[#   9]+
          +0.027*[#  21]+0.024*[#   4]+0.024*[#  16]+0.013*[#  26]+0.013*[#  29]+
          +0.013*[#  27]+0.013*[#  30]+
    |psi|^2 = 0.979
==== e(   5) =   -14.36503 eV ==== 
     psi = 0.142*[#   3]+0.142*[#  15]+0.081*[#   9]+0.081*[#  21]+0.080*[#   5]+
          +0.080*[#  17]+0.054*[#   8]+0.054*[#  20]+0.053*[#  12]+0.053*[#  24]+
          +0.040*[#  27]+0.040*[#  30]+0.040*[#  26]+0.040*[#  29]+
    |psi|^2 = 0.979
==== e(   6) =   -12.46083 eV ==== 
     psi = 0.110*[#   4]+0.110*[#  16]+0.082*[#   7]+0.082*[#  11]+0.082*[#  19]+
          +0.082*[#  23]+0.045*[#  25]+0.045*[#  26]+0.045*[#  27]+0.045*[#  28]+
          +0.045*[#  29]+0.045*[#  30]+0.027*[#   8]+0.027*[#  12]+0.027*[#  20]+
          +0.027*[#  24]+0.007*[#   1]+0.007*[#   5]+0.007*[#   9]+0.007*[#  13]+
          +0.007*[#  17]+0.007*[#  21]+
    |psi|^2 = 0.971
==== e(   7) =   -10.75707 eV ==== 
     psi = 0.072*[#  25]+0.072*[#  26]+0.072*[#  27]+0.072*[#  28]+0.072*[#  29]+
          +0.072*[#  30]+0.056*[#   4]+0.056*[#  16]+0.042*[#   7]+0.042*[#  11]+
          +0.042*[#  19]+0.042*[#  23]+0.036*[#   1]+0.036*[#   5]+0.036*[#   9]+
          +0.036*[#  13]+0.036*[#  17]+0.036*[#  21]+0.014*[#   8]+0.014*[#  12]+
          +0.014*[#  20]+0.014*[#  24]+
    |psi|^2 = 0.991
==== e(   8) =   -10.43659 eV ==== 
     psi = 0.164*[#   3]+0.164*[#  15]+0.123*[#   8]+0.123*[#  12]+0.123*[#  20]+
          +0.123*[#  24]+0.041*[#   7]+0.041*[#  11]+0.041*[#  19]+0.041*[#  23]+
    |psi|^2 = 0.983
==== e(   9) =    -9.77726 eV ==== 
     psi = 0.115*[#  11]+0.115*[#  23]+0.109*[#   7]+0.109*[#  19]+0.067*[#  27]+
          +0.067*[#  30]+0.065*[#  26]+0.065*[#  29]+0.062*[#  12]+0.062*[#  24]+
          +0.062*[#   8]+0.062*[#  20]+0.009*[#   3]+0.009*[#  15]+0.002*[#   5]+
          +0.002*[#   9]+0.002*[#  17]+0.002*[#  21]+
    |psi|^2 = 0.988
==== e(  10) =    -9.77681 eV ==== 
     psi = 0.229*[#   4]+0.229*[#  16]+0.088*[#  25]+0.088*[#  28]+0.065*[#   7]+
          +0.065*[#  19]+0.059*[#  11]+0.059*[#  23]+0.023*[#  26]+0.023*[#  29]+
          +0.021*[#  27]+0.021*[#  30]+0.003*[#   1]+0.003*[#   8]+0.003*[#  13]+
          +0.003*[#  20]+0.002*[#  12]+0.002*[#  24]+
    |psi|^2 = 0.988
==== e(  11) =    -8.59966 eV ==== 
     psi = 0.163*[#   2]+0.163*[#   6]+0.163*[#  10]+0.163*[#  14]+0.163*[#  18]+
          +0.163*[#  22]+
    |psi|^2 = 0.977
==== e(  12) =    -7.78069 eV ==== 
     psi = 0.115*[#   8]+0.115*[#  12]+0.115*[#  20]+0.115*[#  24]+0.114*[#   4]+
          +0.114*[#  16]+0.102*[#  25]+0.102*[#  28]+0.025*[#  26]+0.025*[#  27]+
          +0.025*[#  29]+0.025*[#  30]+
    |psi|^2 = 0.995
==== e(  13) =    -7.77943 eV ==== 
     psi = 0.115*[#   3]+0.115*[#  15]+0.115*[#   7]+0.115*[#  11]+0.115*[#  19]+
          +0.115*[#  23]+0.076*[#  26]+0.076*[#  27]+0.076*[#  29]+0.076*[#  30]+
    |psi|^2 = 0.995
==== e(  14) =    -5.86711 eV ==== 
     psi = 0.251*[#  10]+0.251*[#  22]+0.247*[#   6]+0.247*[#  18]+
    |psi|^2 = 0.997
==== e(  15) =    -5.86578 eV ==== 
     psi = 0.332*[#   2]+0.332*[#  14]+0.085*[#   6]+0.085*[#  18]+0.081*[#  10]+
          +0.081*[#  22]+
    |psi|^2 = 0.997
==== e(  16) =    -0.75755 eV ==== 
     psi = 0.313*[#   2]+0.313*[#  14]+0.079*[#  10]+0.079*[#  22]+0.078*[#   6]+
          +0.078*[#  18]+
    |psi|^2 = 0.938
==== e(  17) =    -0.75430 eV ==== 
     psi = 0.236*[#   6]+0.236*[#  18]+0.235*[#  10]+0.235*[#  22]+
    |psi|^2 = 0.941
==== e(  18) =    -0.40524 eV ==== 
     psi = 0.024*[#  25]+0.024*[#  28]+0.023*[#  26]+0.023*[#  27]+0.023*[#  29]+
          +0.023*[#  30]+0.004*[#   1]+0.004*[#  13]+0.004*[#   5]+0.004*[#   9]+
          +0.004*[#  17]+0.004*[#  21]+0.003*[#   4]+0.003*[#  16]+0.002*[#   7]+
          +0.002*[#  11]+0.002*[#  19]+0.002*[#  23]+
    |psi|^2 = 0.178
==== e(  19) =     0.71340 eV ==== 
     psi = 0.016*[#   1]+0.016*[#  13]+0.014*[#  25]+0.014*[#  28]+0.005*[#   8]+
          +0.005*[#  12]+0.005*[#  20]+0.005*[#  24]+0.004*[#   5]+0.004*[#   9]+
          +0.004*[#  17]+0.004*[#  21]+0.003*[#  26]+0.003*[#  27]+0.003*[#  29]+
          +0.003*[#  30]+0.002*[#   7]+0.002*[#  11]+0.002*[#  19]+0.002*[#  23]+
    |psi|^2 = 0.113
==== e(  20) =     0.77407 eV ==== 
     psi = 0.022*[#  25]+0.022*[#  28]+0.013*[#  26]+0.013*[#  27]+0.013*[#  29]+
          +0.013*[#  30]+0.004*[#   1]+0.004*[#  13]+0.004*[#   5]+0.004*[#   7]+
          +0.004*[#   9]+0.004*[#  11]+0.004*[#  17]+0.004*[#  19]+0.004*[#  21]+
          +0.004*[#  23]+0.003*[#   4]+0.003*[#  16]+0.001*[#   8]+0.001*[#  12]+
          +0.001*[#  20]+0.001*[#  24]+
    |psi|^2 = 0.146
==== e(  21) =     0.78736 eV ==== 
     psi = 0.023*[#  26]+0.023*[#  27]+0.023*[#  29]+0.023*[#  30]+0.006*[#   3]+
          +0.006*[#  15]+0.006*[#   5]+0.006*[#   9]+0.006*[#  17]+0.006*[#  21]+
          +0.003*[#   8]+0.003*[#  12]+0.003*[#  20]+0.003*[#  24]+0.001*[#   7]+
          +0.001*[#  11]+0.001*[#  19]+0.001*[#  23]+
    |psi|^2 = 0.141
==== e(  22) =     0.84504 eV ==== 
     psi = 0.009*[#  26]+0.009*[#  27]+0.009*[#  29]+0.009*[#  30]+0.009*[#  25]+
          +0.009*[#  28]+0.004*[#   5]+0.004*[#   9]+0.004*[#  17]+0.004*[#  21]+
          +0.003*[#   1]+0.003*[#  13]+
    |psi|^2 = 0.079
==== e(  23) =     0.91026 eV ==== 
     psi = 0.001*[#   2]+0.001*[#   6]+0.001*[#  10]+0.001*[#  14]+0.001*[#  18]+
          +0.001*[#  22]+
    |psi|^2 = 0.007
==== e(  24) =     1.25946 eV ==== 
     psi = 0.010*[#  25]+0.010*[#  28]+0.008*[#  26]+0.008*[#  27]+0.008*[#  29]+
          +0.008*[#  30]+0.003*[#   4]+0.003*[#  16]+0.001*[#   5]+0.001*[#   7]+
          +0.001*[#   9]+0.001*[#  11]+0.001*[#  17]+0.001*[#  19]+0.001*[#  21]+
          +0.001*[#  23]+0.001*[#   1]+0.001*[#  13]+
    |psi|^2 = 0.070
==== e(  25) =     1.62395 eV ==== 
     psi = 0.022*[#   5]+0.022*[#   9]+0.022*[#  17]+0.022*[#  21]+0.017*[#   3]+
          +0.017*[#  15]+0.017*[#  26]+0.017*[#  27]+0.017*[#  29]+0.017*[#  30]+
          +0.003*[#   8]+0.003*[#  12]+0.003*[#  20]+0.003*[#  24]+0.001*[#   7]+
          +0.001*[#  11]+0.001*[#  19]+0.001*[#  23]+
    |psi|^2 = 0.205
==== e(  26) =     2.05207 eV ==== 
     psi = 0.001*[#   6]+0.001*[#  10]+0.001*[#  18]+0.001*[#  22]+
    |psi|^2 = 0.006
==== e(  27) =     2.06200 eV ==== 
     psi = 
    |psi|^2 = 0.000
==== e(  28) =     2.09576 eV ==== 
     psi = 0.020*[#  25]+0.020*[#  28]+0.010*[#   1]+0.010*[#  13]+0.004*[#  26]+
          +0.004*[#  27]+0.004*[#  29]+0.004*[#  30]+0.003*[#   5]+0.003*[#   9]+
          +0.003*[#  17]+0.003*[#  21]+0.002*[#   8]+0.002*[#  12]+0.002*[#  20]+
          +0.002*[#  24]+0.001*[#   4]+0.001*[#  16]+
    |psi|^2 = 0.096
==== e(  29) =     2.12665 eV ==== 
     psi = 0.010*[#  26]+0.010*[#  27]+0.010*[#  29]+0.010*[#  30]+0.003*[#   8]+
          +0.003*[#  12]+0.003*[#  20]+0.003*[#  24]+0.002*[#   5]+0.002*[#   9]+
          +0.002*[#  17]+0.002*[#  21]+
    |psi|^2 = 0.059
==== e(  30) =     2.13397 eV ==== 
     psi = 0.006*[#  25]+0.006*[#  28]+0.002*[#   1]+0.002*[#   5]+0.002*[#   9]+
          +0.002*[#  13]+0.002*[#  17]+0.002*[#  21]+0.002*[#  26]+0.002*[#  27]+
          +0.002*[#  29]+0.002*[#  30]+0.001*[#   4]+0.001*[#  16]+
    |psi|^2 = 0.031
==== e(  31) =     2.20134 eV ==== 
     psi = 0.014*[#  27]+0.014*[#  30]+0.014*[#  26]+0.013*[#  29]+0.003*[#   7]+
          +0.003*[#  11]+0.003*[#  19]+0.003*[#  23]+0.003*[#   5]+0.003*[#   9]+
          +0.003*[#  17]+0.003*[#  21]+
    |psi|^2 = 0.081
==== e(  32) =     2.20356 eV ==== 
     psi = 0.029*[#  25]+0.029*[#  28]+0.007*[#   4]+0.007*[#  16]+0.006*[#   1]+
          +0.006*[#  13]+0.006*[#  26]+0.006*[#  29]+0.005*[#  27]+0.005*[#  30]+
          +0.002*[#   7]+0.002*[#  11]+0.002*[#  19]+0.002*[#  23]+
    |psi|^2 = 0.118
==== e(  33) =     2.21979 eV ==== 
     psi = 0.007*[#   1]+0.007*[#  13]+0.006*[#  25]+0.006*[#  28]+0.002*[#   8]+
          +0.002*[#  12]+0.002*[#  20]+0.002*[#  24]+0.002*[#   5]+0.002*[#   9]+
          +0.002*[#  17]+0.002*[#  21]+0.002*[#  26]+0.002*[#  27]+0.002*[#  29]+
          +0.002*[#  30]+
    |psi|^2 = 0.051
==== e(  34) =     2.29598 eV ==== 
     psi = 0.005*[#   2]+0.005*[#  14]+0.001*[#   6]+0.001*[#  10]+0.001*[#  18]+
          +0.001*[#  22]+
    |psi|^2 = 0.016
==== e(  35) =     2.38939 eV ==== 
     psi = 0.001*[#   2]+0.001*[#  14]+
    |psi|^2 = 0.006
==== e(  36) =     2.86709 eV ==== 
     psi = 0.008*[#  26]+0.008*[#  27]+0.008*[#  29]+0.008*[#  30]+0.008*[#  25]+
          +0.008*[#  28]+0.002*[#   4]+0.002*[#  16]+0.002*[#   7]+0.002*[#  11]+
          +0.002*[#  19]+0.002*[#  23]+0.001*[#   1]+0.001*[#  13]+0.001*[#   5]+
          +0.001*[#   9]+0.001*[#  17]+0.001*[#  21]+
    |psi|^2 = 0.070
==== e(  37) =     2.93045 eV ==== 
     psi = 0.110*[#   2]+0.110*[#  14]+0.106*[#   6]+0.106*[#  10]+0.106*[#  18]+
          +0.106*[#  22]+
    |psi|^2 = 0.645
==== e(  38) =     3.25215 eV ==== 
     psi = 0.021*[#  26]+0.021*[#  27]+0.021*[#  29]+0.021*[#  30]+0.011*[#  25]+
          +0.011*[#  28]+0.010*[#   1]+0.010*[#  13]+0.007*[#   5]+0.007*[#   9]+
          +0.007*[#  17]+0.007*[#  21]+0.005*[#   7]+0.005*[#  11]+0.005*[#  19]+
          +0.005*[#  23]+
    |psi|^2 = 0.174
==== e(  39) =     3.31642 eV ==== 
     psi = 0.008*[#   5]+0.008*[#   9]+0.008*[#  17]+0.008*[#  21]+0.005*[#  26]+
          +0.005*[#  27]+0.005*[#  29]+0.005*[#  30]+0.004*[#   3]+0.004*[#  15]+
    |psi|^2 = 0.064
==== e(  40) =     3.36243 eV ==== 
     psi = 0.032*[#  25]+0.032*[#  28]+0.012*[#   1]+0.012*[#  13]+0.007*[#   4]+
          +0.007*[#  16]+0.003*[#   5]+0.003*[#   9]+0.003*[#  17]+0.003*[#  21]+
          +0.002*[#  26]+0.002*[#  27]+0.002*[#  29]+0.002*[#  30]+
    |psi|^2 = 0.125

 k =   0.0000000000  0.0000000000  0.0000000000
==== e(   1) =   -20.73442 eV ==== 
     psi = 0.124*[#   1]+0.124*[#   5]+0.124*[#   9]+0.124*[#  13]+0.124*[#  17]+
          +0.124*[#  21]+0.026*[#   4]+0.026*[#  16]+0.019*[#   7]+0.019*[#  11]+
          +0.019*[#  19]+0.019*[#  23]+0.014*[#  25]+0.014*[#  26]+0.014*[#  27]+
          +0.014*[#  28]+0.014*[#  29]+0.014*[#  30]+0.006*[#   8]+0.006*[#  12]+
          +0.006*[#  20]+0.006*[#  24]+
    |psi|^2 = 0.981
==== e(   2) =   -17.95868 eV ==== 
     psi = 0.159*[#   9]+0.159*[#  21]+0.156*[#   5]+0.156*[#  17]+0.080*[#   3]+
          +0.080*[#  15]+0.029*[#  27]+0.029*[#  30]+0.028*[#  26]+0.028*[#  29]+
          +0.017*[#   8]+0.017*[#  20]+0.017*[#  12]+0.017*[#  24]+0.003*[#   7]+
          +0.003*[#  19]+0.003*[#  11]+0.003*[#  23]+
    |psi|^2 = 0.985
==== e(   3) =   -17.95741 eV ==== 
     psi = 0.210*[#   1]+0.210*[#  13]+0.054*[#   5]+0.054*[#  17]+0.051*[#   9]+
          +0.051*[#  21]+0.043*[#  12]+0.043*[#  24]+0.042*[#   8]+0.042*[#  20]+
          +0.038*[#  25]+0.038*[#  28]+0.017*[#  11]+0.017*[#  23]+0.017*[#   7]+
          +0.017*[#  19]+0.010*[#  26]+0.010*[#  29]+0.009*[#  27]+0.009*[#  30]+
    |psi|^2 = 0.985
==== e(   4) =   -14.36537 eV ==== 
     psi = 0.107*[#   1]+0.107*[#  13]+0.059*[#   8]+0.059*[#  12]+0.059*[#  20]+
          +0.059*[#  24]+0.053*[#   7]+0.053*[#  11]+0.053*[#  19]+0.053*[#  23]+
          +0.053*[#  25]+0.053*[#  28]+0.027*[#   5]+0.027*[#   9]+0.027*[#  17]+
          +0.027*[#  21]+0.024*[#   4]+0.024*[#  16]+0.013*[#  26]+0.013*[#  27]+
          +0.013*[#  29]+0.013*[#  30]+
    |psi|^2 = 0.979
==== e(   5) =   -14.36502 eV ==== 
     psi = 0.142*[#   3]+0.142*[#  15]+0.080*[#   5]+0.080*[#   9]+0.080*[#  17]+
          +0.080*[#  21]+0.053*[#   8]+0.053*[#  12]+0.053*[#  20]+0.053*[#  24]+
          +0.040*[#  26]+0.040*[#  27]+0.040*[#  29]+0.040*[#  30]+
    |psi|^2 = 0.979
==== e(   6) =   -12.46080 eV ==== 
     psi = 0.110*[#   4]+0.110*[#  16]+0.082*[#   7]+0.082*[#  11]+0.082*[#  19]+
          +0.082*[#  23]+0.045*[#  25]+0.045*[#  26]+0.045*[#  27]+0.045*[#  28]+
          +0.045*[#  29]+0.045*[#  30]+0.027*[#   8]+0.027*[#  12]+0.027*[#  20]+
          +0.027*[#  24]+0.007*[#   1]+0.007*[#   5]+0.007*[#   9]+0.007*[#  13]+
          +0.007*[#  17]+0.007*[#  21]+
    |psi|^2 = 0.971
==== e(   7) =   -10.75707 eV ==== 
     psi = 0.072*[#  25]+0.072*[#  26]+0.072*[#  27]+0.072*[#  28]+0.072*[#  29]+
          +0.072*[#  30]+0.056*[#   4]+0.056*[#  16]+0.042*[#   7]+0.042*[#  11]+
          +0.042*[#  19]+0.042*[#  23]+0.036*[#   1]+0.036*[#   5]+0.036*[#   9]+
          +0.036*[#  13]+0.036*[#  17]+0.036*[#  21]+0.014*[#   8]+0.014*[#  12]+
          +0.014*[#  20]+0.014*[#  24]+
    |psi|^2 = 0.991
==== e(   8) =   -10.43665 eV ==== 
     psi = 0.164*[#   3]+0.164*[#  15]+0.123*[#   8]+0.123*[#  12]+0.123*[#  20]+
          +0.123*[#  24]+0.041*[#   7]+0.041*[#  11]+0.041*[#  19]+0.041*[#  23]+
    |psi|^2 = 0.983
==== e(   9) =    -9.77719 eV ==== 
     psi = 0.116*[#  11]+0.116*[#  23]+0.109*[#   7]+0.109*[#  19]+0.067*[#  27]+
          +0.067*[#  30]+0.064*[#  26]+0.064*[#  29]+0.062*[#  12]+0.062*[#  24]+
          +0.062*[#   8]+0.062*[#  20]+0.009*[#   3]+0.009*[#  15]+0.002*[#   5]+
          +0.002*[#   9]+0.002*[#  17]+0.002*[#  21]+
    |psi|^2 = 0.988
==== e(  10) =    -9.77679 eV ==== 
     psi = 0.229*[#   4]+0.229*[#  16]+0.088*[#  25]+0.088*[#  28]+0.066*[#   7]+
          +0.066*[#  19]+0.059*[#  11]+0.059*[#  23]+0.024*[#  26]+0.024*[#  29]+
          +0.020*[#  27]+0.020*[#  30]+0.003*[#   1]+0.003*[#   8]+0.003*[#  13]+
          +0.003*[#  20]+0.002*[#  12]+0.002*[#  24]+
    |psi|^2 = 0.988
==== e(  11) =    -8.59964 eV ==== 
     psi = 0.163*[#   2]+0.163*[#   6]+0.163*[#  10]+0.163*[#  14]+0.163*[#  18]+
          +0.163*[#  22]+
    |psi|^2 = 0.977
==== e(  12) =    -7.78068 eV ==== 
     psi = 0.115*[#   8]+0.115*[#  12]+0.115*[#  20]+0.115*[#  24]+0.114*[#   4]+
          +0.114*[#  16]+0.102*[#  25]+0.102*[#  28]+0.025*[#  26]+0.025*[#  27]+
          +0.025*[#  29]+0.025*[#  30]+
    |psi|^2 = 0.995
==== e(  13) =    -7.77943 eV ==== 
     psi = 0.115*[#   3]+0.115*[#  15]+0.115*[#   7]+0.115*[#  11]+0.115*[#  19]+
          +0.115*[#  23]+0.076*[#  26]+0.076*[#  27]+0.076*[#  29]+0.076*[#  30]+
    |psi|^2 = 0.995
==== e(  14) =    -5.86709 eV ==== 
     psi = 0.251*[#  10]+0.251*[#  22]+0.247*[#   6]+0.247*[#  18]+
    |psi|^2 = 0.997
==== e(  15) =    -5.86579 eV ==== 
     psi = 0.332*[#   2]+0.332*[#  14]+0.085*[#   6]+0.085*[#  18]+0.081*[#  10]+
          +0.081*[#  22]+
    |psi|^2 = 0.997
==== e(  16) =    -0.75758 eV ==== 
     psi = 0.313*[#   2]+0.313*[#  14]+0.079*[#  10]+0.079*[#  22]+0.078*[#   6]+
          +0.078*[#  18]+
    |psi|^2 = 0.938
==== e(  17) =    -0.75427 eV ==== 
     psi = 0.236*[#   6]+0.236*[#  18]+0.235*[#  10]+0.235*[#  22]+
    |psi|^2 = 0.941
==== e(  18) =    -0.40535 eV ==== 
     psi = 0.024*[#  25]+0.024*[#  28]+0.023*[#  26]+0.023*[#  27]+0.023*[#  29]+
          +0.023*[#  30]+0.004*[#   1]+0.004*[#  13]+0.004*[#   5]+0.004*[#   9]+
          +0.004*[#  17]+0.004*[#  21]+0.003*[#   4]+0.003*[#  16]+0.002*[#   7]+
          +0.002*[#  11]+0.002*[#  19]+0.002*[#  23]+
    |psi|^2 = 0.178
==== e(  19) =     0.71330 eV ==== 
     psi = 0.016*[#   1]+0.016*[#  13]+0.014*[#  25]+0.014*[#  28]+0.005*[#   8]+
          +0.005*[#  12]+0.005*[#  20]+0.005*[#  24]+0.004*[#   5]+0.004*[#   9]+
          +0.004*[#  17]+0.004*[#  21]+0.003*[#  26]+0.003*[#  27]+0.003*[#  29]+
          +0.003*[#  30]+0.002*[#   7]+0.002*[#  11]+0.002*[#  19]+0.002*[#  23]+
    |psi|^2 = 0.113
==== e(  20) =     0.77393 eV ==== 
     psi = 0.022*[#  25]+0.022*[#  28]+0.013*[#  26]+0.013*[#  27]+0.013*[#  29]+
          +0.013*[#  30]+0.004*[#   1]+0.004*[#  13]+0.004*[#   5]+0.004*[#   7]+
          +0.004*[#   9]+0.004*[#  11]+0.004*[#  17]+0.004*[#  19]+0.004*[#  21]+
          +0.004*[#  23]+0.003*[#   4]+0.003*[#  16]+0.001*[#   8]+0.001*[#  12]+
          +0.001*[#  20]+0.001*[#  24]+
    |psi|^2 = 0.146
==== e(  21) =     0.78722 eV ==== 
     psi = 0.023*[#  26]+0.023*[#  27]+0.023*[#  29]+0.023*[#  30]+0.006*[#   3]+
          +0.006*[#  15]+0.006*[#   5]+0.006*[#   9]+0.006*[#  17]+0.006*[#  21]+
          +0.003*[#   8]+0.003*[#  12]+0.003*[#  20]+0.003*[#  24]+0.001*[#   7]+
          +0.001*[#  11]+0.001*[#  19]+0.001*[#  23]+
    |psi|^2 = 0.141
==== e(  22) =     0.84503 eV ==== 
     psi = 0.009*[#  26]+0.009*[#  27]+0.009*[#  29]+0.009*[#  30]+0.009*[#  25]+
          +0.009*[#  28]+0.004*[#   5]+0.004*[#   9]+0.004*[#  17]+0.004*[#  21]+
          +0.003*[#   1]+0.003*[#  13]+
    |psi|^2 = 0.079
==== e(  23) =     0.91019 eV ==== 
     psi = 0.001*[#   2]+0.001*[#   6]+0.001*[#  10]+0.001*[#  14]+0.001*[#  18]+
          +0.001*[#  22]+
    |psi|^2 = 0.007
==== e(  24) =     1.25943 eV ==== 
     psi = 0.010*[#  25]+0.010*[#  28]+0.008*[#  26]+0.008*[#  27]+0.008*[#  29]+
          +0.008*[#  30]+0.003*[#   4]+0.003*[#  16]+0.001*[#   5]+0.001*[#   7]+
          +0.001*[#   9]+0.001*[#  11]+0.001*[#  17]+0.001*[#  19]+0.001*[#  21]+
          +0.001*[#  23]+0.001*[#   1]+0.001*[#  13]+
    |psi|^2 = 0.070
==== e(  25) =     1.62379 eV ==== 
     psi = 0.022*[#   5]+0.022*[#   9]+0.022*[#  17]+0.022*[#  21]+0.017*[#   3]+
          +0.017*[#  15]+0.017*[#  26]+0.017*[#  27]+0.017*[#  29]+0.017*[#  30]+
          +0.003*[#   8]+0.003*[#  12]+0.003*[#  20]+0.003*[#  24]+0.001*[#   7]+
          +0.001*[#  11]+0.001*[#  19]+0.001*[#  23]+
    |psi|^2 = 0.205
==== e(  26) =     2.05197 eV ==== 
     psi = 0.001*[#   6]+0.001*[#  10]+0.001*[#  18]+0.001*[#  22]+
    |psi|^2 = 0.006
==== e(  27) =     2.06189 eV ==== 
     psi = 
    |psi|^2 = 0.000
==== e(  28) =     2.09562 eV ==== 
     psi = 0.020*[#  25]+0.020*[#  28]+0.010*[#   1]+0.010*[#  13]+0.004*[#  26]+
          +0.004*[#  27]+0.004*[#  29]+0.004*[#  30]+0.003*[#   5]+0.003*[#   9]+
          +0.003*[#  17]+0.003*[#  21]+0.002*[#   8]+0.002*[#  12]+0.002*[#  20]+
          +0.002*[#  24]+0.001*[#   4]+0.001*[#  16]+
    |psi|^2 = 0.096
==== e(  29) =     2.12655 eV ==== 
     psi = 0.010*[#  26]+0.010*[#  27]+0.010*[#  29]+0.010*[#  30]+0.003*[#   8]+
          +0.003*[#  12]+0.003*[#  20]+0.003*[#  24]+0.002*[#   5]+0.002*[#   9]+
          +0.002*[#  17]+0.002*[#  21]+
    |psi|^2 = 0.059
==== e(  30) =     2.13392 eV ==== 
     psi = 0.006*[#  25]+0.006*[#  28]+0.002*[#   1]+0.002*[#   5]+0.002*[#   9]+
          +0.002*[#  13]+0.002*[#  17]+0.002*[#  21]+0.002*[#  26]+0.002*[#  27]+
          +0.002*[#  29]+0.002*[#  30]+0.001*[#   4]+0.001*[#  16]+
    |psi|^2 = 0.031
==== e(  31) =     2.20132 eV ==== 
     psi = 0.014*[#  27]+0.014*[#  30]+0.014*[#  26]+0.013*[#  29]+0.003*[#   7]+
          +0.003*[#  11]+0.003*[#  19]+0.003*[#  23]+0.003*[#   5]+0.003*[#   9]+
          +0.003*[#  17]+0.003*[#  21]+
    |psi|^2 = 0.081
==== e(  32) =     2.20356 eV ==== 
     psi = 0.029*[#  25]+0.029*[#  28]+0.007*[#   4]+0.007*[#  16]+0.006*[#   1]+
          +0.006*[#  13]+0.006*[#  26]+0.006*[#  29]+0.005*[#  27]+0.005*[#  30]+
          +0.002*[#   7]+0.002*[#  11]+0.002*[#  19]+0.002*[#  23]+
    |psi|^2 = 0.118
==== e(  33) =     2.21978 eV ==== 
     psi = 0.007*[#   1]+0.007*[#  13]+0.006*[#  25]+0.006*[#  28]+0.002*[#   8]+
          +0.002*[#  12]+0.002*[#  20]+0.002*[#  24]+0.002*[#   5]+0.002*[#   9]+
          +0.002*[#  17]+0.002*[#  21]+0.002*[#  26]+0.002*[#  27]+0.002*[#  29]+
          +0.002*[#  30]+
    |psi|^2 = 0.051
==== e(  34) =     2.29590 eV ==== 
     psi = 0.005*[#   2]+0.005*[#  14]+0.001*[#   6]+0.001*[#  10]+0.001*[#  18]+
          +0.001*[#  22]+
    |psi|^2 = 0.016
==== e(  35) =     2.38934 eV ==== 
     psi = 0.001*[#   2]+0.001*[#  14]+
    |psi|^2 = 0.006
==== e(  36) =     2.86707 eV ==== 
     psi = 0.008*[#  26]+0.008*[#  27]+0.008*[#  29]+0.008*[#  30]+0.008*[#  25]+
          +0.008*[#  28]+0.002*[#   4]+0.002*[#  16]+0.002*[#   7]+0.002*[#  11]+
          +0.002*[#  19]+0.002*[#  23]+0.001*[#   1]+0.001*[#  13]+0.001*[#   5]+
          +0.001*[#   9]+0.001*[#  17]+0.001*[#  21]+
    |psi|^2 = 0.070
==== e(  37) =     2.93042 eV ==== 
     psi = 0.110*[#   2]+0.110*[#  14]+0.106*[#   6]+0.106*[#  10]+0.106*[#  18]+
          +0.106*[#  22]+
    |psi|^2 = 0.645
==== e(  38) =     3.25214 eV ==== 
     psi = 0.021*[#  26]+0.021*[#  27]+0.021*[#  29]+0.021*[#  30]+0.011*[#  25]+
          +0.011*[#  28]+0.010*[#   1]+0.010*[#  13]+0.007*[#   5]+0.007*[#   9]+
          +0.007*[#  17]+0.007*[#  21]+0.005*[#   7]+0.005*[#  11]+0.005*[#  19]+
          +0.005*[#  23]+
    |psi|^2 = 0.174
==== e(  39) =     3.31643 eV ==== 
     psi = 0.008*[#   5]+0.008*[#   9]+0.008*[#  17]+0.008*[#  21]+0.005*[#  26]+
          +0.005*[#  27]+0.005*[#  29]+0.005*[#  30]+0.004*[#   3]+0.004*[#  15]+
    |psi|^2 = 0.064
==== e(  40) =     3.36240 eV ==== 
     psi = 0.032*[#  25]+0.032*[#  28]+0.012*[#   1]+0.012*[#  13]+0.007*[#   4]+
          +0.007*[#  16]+0.003*[#   5]+0.003*[#   9]+0.003*[#  17]+0.003*[#  21]+
          +0.002*[#  26]+0.002*[#  27]+0.002*[#  29]+0.002*[#  30]+
    |psi|^2 = 0.125

Lowdin Charges: 

     Atom #   1: total charge =   4.1072, s =  0.9754, p =  3.1318, 
                 spin up      =   2.0536, s =  0.4877, p =  1.5659, 
                 spin down    =   2.0536, s =  0.4877, p =  1.5659, 
                 polarization =   0.0000, s =  0.0000, p =  0.0000, 
     Atom #   2: total charge =   4.1079, s =  0.9755, p =  3.1324, 
                 spin up      =   2.0540, s =  0.4878, p =  1.5662, 
                 spin down    =   2.0539, s =  0.4878, p =  1.5662, 
                 polarization =   0.0000, s =  0.0000, p =  0.0000, 
     Atom #   3: total charge =   4.1079, s =  0.9755, p =  3.1324, 
                 spin up      =   2.0540, s =  0.4878, p =  1.5662, 
                 spin down    =   2.0539, s =  0.4878, p =  1.5662, 
                 polarization =   0.0000, s =  0.0000, p =  0.0000, 
     Atom #   4: total charge =   4.1072, s =  0.9754, p =  3.1318, 
                 spin up      =   2.0536, s =  0.4877, p =  1.5659, 
                 spin down    =   2.0536, s =  0.4877, p =  1.5659, 
                 polarization =   0.0000, s =  0.0000, p =  0.0000, 
     Atom #   5: total charge =   4.1079, s =  0.9755, p =  3.1324, 
                 spin up      =   2.0539, s =  0.4878, p =  1.5662, 
                 spin down    =   2.0539, s =  0.4878, p =  1.5662, 
                 polarization =   0.0000, s =  0.0000, p =  0.0000, 
     Atom #   6: total charge =   4.1079, s =  0.9755, p =  3.1324, 
                 spin up      =   2.0539, s =  0.4878, p =  1.5662, 
                 spin down    =   2.0539, s =  0.4878, p =  1.5662, 
                 polarization =   0.0000, s =  0.0000, p =  0.0000, 
     Atom #   7: total charge =   0.8233, s =  0.8233, p =  0.0000, 
                 spin up      =   0.4116, s =  0.4116, p =  0.0000, 
                 spin down    =   0.4116, s =  0.4116, p =  0.0000, 
                 polarization =   0.0000, s =  0.0000, p =  0.0000, 
     Atom #   8: total charge =   0.8230, s =  0.8230, p =  0.0000, 
                 spin up      =   0.4115, s =  0.4115, p =  0.0000, 
                 spin down    =   0.4115, s =  0.4115, p =  0.0000, 
                 polarization =   0.0000, s =  0.0000, p =  0.0000, 
     Atom #   9: total charge =   0.8230, s =  0.8230, p =  0.0000, 
                 spin up      =   0.4115, s =  0.4115, p =  0.0000, 
                 spin down    =   0.4115, s =  0.4115, p =  0.0000, 
                 polarization =   0.0000, s =  0.0000, p =  0.0000, 
     Atom #  10: total charge =   0.8233, s =  0.8233, p =  0.0000, 
                 spin up      =   0.4116, s =  0.4116, p =  0.0000, 
                 spin down    =   0.4116, s =  0.4116, p =  0.0000, 
                 polarization =   0.0000, s =  0.0000, p =  0.0000, 
     Atom #  11: total charge =   0.8230, s =  0.8230, p =  0.0000, 
                 spin up      =   0.4115, s =  0.4115, p =  0.0000, 
                 spin down    =   0.4115, s =  0.4115, p =  0.0000, 
                 polarization =   0.0000, s =  0.0000, p =  0.0000, 
     Atom #  12: total charge =   0.8230, s =  0.8230, p =  0.0000, 
                 spin up      =   0.4115, s =  0.4115, p =  0.0000, 
                 spin down    =   0.4115, s =  0.4115, p =  0.0000, 
                 polarization =   0.0000, s =  0.0000, p =  0.0000, 
     Spilling Parameter:   0.0139
