
     Program PWSCF v.5.0.1 starts on  9Aug2013 at 15:57:33 

     This program is part of the open-source Quantum ESPRESSO suite
     for quantum simulation of materials; please cite
         "P. Giannozzi et al., J. Phys.:Condens. Matter 21 395502 (2009);
          URL http://www.quantum-espresso.org", 
     in publications or presentations arising from this work. More details at
     http://www.quantum-espresso.org/quote.php

     Parallel version (MPI), running on     2 processors
     R & G space division:  proc/pool =    2

     Current dimensions of program PWSCF are:
     Max number of different atomic species (ntypx) = 10
     Max number of k-points (npk) =  40000
     Max angular momentum in pseudopotentials (lmaxx) =  3
     Waiting for input...
     Reading input from standard input
Warning: card &IONS ignored
Warning: card   ION_DYNAMICS = 'VERLET', ignored
Warning: card   ION_TEMPERATURE = 'ANDERSEN', ignored
Warning: card   TEMPW = 300.00 , ignored
Warning: card   NRAISE = 25, ignored
Warning: card   POT_EXTRAPOLATION = 'SECOND_ORDER', ignored
Warning: card   WFC_EXTRAPOLATION = 'SECOND_ORDER', ignored
Warning: card / ignored

     IMPORTANT: XC functional enforced from input :
     Exchange-correlation      = PBE ( 1 4 3 4 0)
     EXX-fraction              =        0.00
     Any further DFT definition will be discarded
     Please, verify this is what you really want

               file C.pbe-rrkjus.UPF: wavefunction(s)  2S 2P renormalized
               file H.pbe-rrkjus.UPF: wavefunction(s)  1S renormalized

     gamma-point specific algorithms are used

     Subspace diagonalization in iterative solution of the eigenvalue problem:
     a serial algorithm will be used

 
     Parallelization info
     --------------------
     sticks:   dense  smooth     PW     G-vecs:    dense   smooth      PW
     Min        6875    2748    683               607139   153560   19199
     Max        6878    2749    686               607146   153635   19202
     Sum       13753    5497   1369              1214285   307195   38401
     Tot        6877    2749    685
 


     bravais-lattice index     =            0
     lattice parameter (alat)  =       1.8900  a.u.
     unit-cell volume          =    8985.9390 (a.u.)^3
     number of atoms/cell      =           12
     number of atomic types    =            2
     number of electrons       =        30.00 (up:  15.00, down:  15.00)
     number of Kohn-Sham states=           40
     kinetic-energy cutoff     =      40.0000  Ry
     charge density cutoff     =     400.0000  Ry
     convergence threshold     =      1.0E-05
     mixing beta               =       0.4500
     number of iterations used =            8  plain     mixing
     Exchange-correlation      = PBE ( 1 4 3 4 0)
     EXX-fraction              =        0.00

     celldm(1)=   1.890000  celldm(2)=   0.000000  celldm(3)=   0.000000
     celldm(4)=   0.000000  celldm(5)=   0.000000  celldm(6)=   0.000000

     crystal axes: (cart. coord. in units of alat)
               a(1) = (  11.000000   0.000000   0.000000 )  
               a(2) = (   0.000000  11.000000   0.000000 )  
               a(3) = (   0.000000   0.000000  11.000000 )  

     reciprocal axes: (cart. coord. in units 2 pi/alat)
               b(1) = (  0.090909  0.000000  0.000000 )  
               b(2) = (  0.000000  0.090909  0.000000 )  
               b(3) = (  0.000000  0.000000  0.090909 )  


     PseudoPot. # 1 for C  read from file:
     /usr/local/group/oprezhdo_group/QE_PP/upf_files/C.pbe-rrkjus.UPF
     MD5 check sum: 00fb224312de0c5b6853bd333518df6f
     Pseudo is Ultrasoft, Zval =  4.0
     Generated by new atomic code, or converted to UPF format
     Using radial grid of  627 points,  4 beta functions with: 
                l(1) =   0
                l(2) =   0
                l(3) =   1
                l(4) =   1
     Q(r) pseudized with 0 coefficients 


     PseudoPot. # 2 for H  read from file:
     /usr/local/group/oprezhdo_group/QE_PP/upf_files/H.pbe-rrkjus.UPF
     MD5 check sum: 7cc9d459525c9a0585f487a71c3c9563
     Pseudo is Ultrasoft, Zval =  1.0
     Generated by new atomic code, or converted to UPF format
     Using radial grid of 1061 points,  2 beta functions with: 
                l(1) =   0
                l(2) =   0
     Q(r) pseudized with 0 coefficients 


     atomic species   valence    mass     pseudopotential
        C              4.00    12.01000     C ( 1.00)
        H              1.00     1.00800     H ( 1.00)

     Starting magnetic structure 
     atomic species   magnetization
        C            0.000
        H            0.000

     No symmetry found



   Cartesian axes

     site n.     atom                  positions (alat units)
         1           C   tau(   1) = (   5.0000000   3.6054000   5.0000000  )
         2           C   tau(   2) = (   6.2077000   4.3027000   5.0000000  )
         3           C   tau(   3) = (   6.2077000   5.6973000   5.0000000  )
         4           C   tau(   4) = (   5.0000000   6.3946000   5.0000000  )
         5           C   tau(   5) = (   3.7923000   5.6973000   5.0000000  )
         6           C   tau(   6) = (   3.7923000   4.3027000   5.0000000  )
         7           H   tau(   7) = (   5.0000000   2.5253000   5.0000000  )
         8           H   tau(   8) = (   7.1431000   3.7627000   5.0000000  )
         9           H   tau(   9) = (   7.1431000   6.2373000   5.0000000  )
        10           H   tau(  10) = (   5.0000000   7.4747000   5.0000000  )
        11           H   tau(  11) = (   2.8569000   6.2373000   5.0000000  )
        12           H   tau(  12) = (   2.8569000   3.7627000   5.0000000  )

     number of k points=     2  gaussian smearing, width (Ry)=  0.0050
                       cart. coord. in units 2pi/alat
        k(    1) = (   0.0000000   0.0000000   0.0000000), wk =   1.0000000
        k(    2) = (   0.0000000   0.0000000   0.0000000), wk =   1.0000000

     Dense  grid:   607143 G-vectors     FFT dimensions: ( 135, 135, 135)

     Smooth grid:   153598 G-vectors     FFT dimensions: (  90,  90,  90)

     Largest allocated arrays     est. size (Mb)     dimensions
        Kohn-Sham Wavefunctions         5.86 Mb     (   9600,   40)
        NL pseudopotentials             8.79 Mb     (   9600,   60)
        Each V/rho on FFT grid         37.82 Mb     (1239300,   2)
        Each G-vector array             2.32 Mb     ( 303570)
        G-vector shells                 0.03 Mb     (   3651)
     Largest temporary arrays     est. size (Mb)     dimensions
        Auxiliary wavefunctions        11.72 Mb     (   9600,  160)
        Each subspace H/S matrix        0.20 Mb     ( 160, 160)
        Each <psi_i|beta_j> matrix      0.02 Mb     (     60,   40)
        Arrays for rho mixing         151.28 Mb     (1239300,   8)

     Initial potential from superposition of free atoms
     Check: negative starting charge=(component1):   -0.000259
     Check: negative starting charge=(component2):   -0.000259

     starting charge   29.42246, renormalised to   30.00000

     negative rho (up, down):  0.264E-03 0.264E-03
     Starting wfc are   30 randomized atomic wfcs

     total cpu time spent up to now is        9.3 secs

     per-process dynamical memory:   258.1 Mb

     Self-consistent Calculation

     iteration #  1     ecut=    40.00 Ry     beta=0.45
     Davidson diagonalization with overlap
     ethr =  1.00E-02,  avg # of iterations =  8.0

     negative rho (up, down):  0.145E-03 0.145E-03

     total cpu time spent up to now is       28.5 secs

     total energy              =     -75.40729335 Ry
     Harris-Foulkes estimate   =     -76.59681939 Ry
     estimated scf accuracy    <       2.34738640 Ry

     total magnetization       =     0.00 Bohr mag/cell
     absolute magnetization    =     0.00 Bohr mag/cell

     iteration #  2     ecut=    40.00 Ry     beta=0.45
     Davidson diagonalization with overlap
     ethr =  7.82E-03,  avg # of iterations =  2.0

     negative rho (up, down):  0.963E-04 0.963E-04

     total cpu time spent up to now is       46.1 secs

     total energy              =     -75.35804522 Ry
     Harris-Foulkes estimate   =     -75.57021214 Ry
     estimated scf accuracy    <       0.37373365 Ry

     total magnetization       =     0.00 Bohr mag/cell
     absolute magnetization    =     0.00 Bohr mag/cell

     iteration #  3     ecut=    40.00 Ry     beta=0.45
     Davidson diagonalization with overlap
     ethr =  1.25E-03,  avg # of iterations =  6.0

     negative rho (up, down):  0.649E-04 0.649E-04

     total cpu time spent up to now is       66.3 secs

     total energy              =     -75.38745499 Ry
     Harris-Foulkes estimate   =     -75.39418396 Ry
     estimated scf accuracy    <       0.01959704 Ry

     total magnetization       =     0.00 Bohr mag/cell
     absolute magnetization    =     0.00 Bohr mag/cell

     iteration #  4     ecut=    40.00 Ry     beta=0.45
     Davidson diagonalization with overlap
     ethr =  6.53E-05,  avg # of iterations =  6.0

     negative rho (up, down):  0.475E-04 0.474E-04

     total cpu time spent up to now is       82.1 secs

     total energy              =     -75.38895446 Ry
     Harris-Foulkes estimate   =     -75.38878679 Ry
     estimated scf accuracy    <       0.00151897 Ry

     total magnetization       =     0.00 Bohr mag/cell
     absolute magnetization    =     0.00 Bohr mag/cell

     iteration #  5     ecut=    40.00 Ry     beta=0.45
     Davidson diagonalization with overlap
     ethr =  5.06E-06,  avg # of iterations =  5.0

     negative rho (up, down):  0.426E-04 0.426E-04

     total cpu time spent up to now is       98.7 secs

     total energy              =     -75.38921089 Ry
     Harris-Foulkes estimate   =     -75.38909628 Ry
     estimated scf accuracy    <       0.00007810 Ry

     total magnetization       =     0.00 Bohr mag/cell
     absolute magnetization    =     0.00 Bohr mag/cell

     iteration #  6     ecut=    40.00 Ry     beta=0.45
     Davidson diagonalization with overlap
     ethr =  2.60E-07,  avg # of iterations =  5.0

     negative rho (up, down):  0.633E-05 0.634E-05

     total cpu time spent up to now is      110.8 secs

     End of self-consistent calculation

 ------ SPIN UP ------------


          k = 0.0000 0.0000 0.0000 ( 19201 PWs)   bands (ev):

   -20.7344 -17.9587 -17.9574 -14.3653 -14.3650 -12.4608 -10.7571 -10.4366
    -9.7773  -9.7768  -8.5997  -7.7807  -7.7794  -5.8671  -5.8658  -0.7576
    -0.7543  -0.4052   0.7134   0.7741   0.7874   0.8450   0.9103   1.2595
     1.6240   2.0521   2.0620   2.0958   2.1266   2.1340   2.2013   2.2036
     2.2198   2.2960   2.3894   2.8671   2.9304   3.2522   3.3164   3.3624

 ------ SPIN DOWN ----------


          k = 0.0000 0.0000 0.0000 ( 19201 PWs)   bands (ev):

   -20.7344 -17.9587 -17.9574 -14.3654 -14.3650 -12.4608 -10.7571 -10.4367
    -9.7772  -9.7768  -8.5996  -7.7807  -7.7794  -5.8671  -5.8658  -0.7576
    -0.7543  -0.4054   0.7133   0.7739   0.7872   0.8450   0.9102   1.2594
     1.6238   2.0520   2.0619   2.0956   2.1266   2.1339   2.2013   2.2036
     2.2198   2.2959   2.3893   2.8671   2.9304   3.2521   3.3164   3.3624

     the spin up/dw Fermi energies are    -2.5938   -2.5938 ev

!    total energy              =     -75.38922733 Ry
     Harris-Foulkes estimate   =     -75.38922082 Ry
     estimated scf accuracy    <       0.00000644 Ry

     The total energy is the sum of the following terms:

     one-electron contribution =    -283.49915102 Ry
     hartree contribution      =     145.29825309 Ry
     xc contribution           =     -25.18891777 Ry
     ewald contribution        =      88.00058837 Ry
     smearing contrib. (-TS)   =       0.00000000 Ry

     total magnetization       =     0.00 Bohr mag/cell
     absolute magnetization    =     0.00 Bohr mag/cell

     convergence has been achieved in   6 iterations

     Writing output data file x.save
 
     init_run     :      6.82s CPU      9.25s WALL (       1 calls)
     electrons    :     75.87s CPU    101.53s WALL (       1 calls)

     Called by init_run:
     wfcinit      :      1.32s CPU      2.71s WALL (       1 calls)
     potinit      :      3.43s CPU      3.64s WALL (       1 calls)

     Called by electrons:
     c_bands      :     28.43s CPU     29.01s WALL (       6 calls)
     sum_band     :     18.16s CPU     18.25s WALL (       6 calls)
     v_of_rho     :     18.94s CPU     19.54s WALL (       7 calls)
     newd         :      9.69s CPU      9.89s WALL (       7 calls)
     mix_rho      :      2.04s CPU      2.27s WALL (       6 calls)

     Called by c_bands:
     init_us_2    :      0.14s CPU      0.14s WALL (      26 calls)
     regterg      :     28.09s CPU     28.56s WALL (      12 calls)

     Called by *egterg:
     h_psi        :     25.08s CPU     25.14s WALL (      78 calls)
     s_psi        :      0.49s CPU      0.49s WALL (      78 calls)
     g_psi        :      0.28s CPU      0.29s WALL (      64 calls)
     rdiaghg      :      0.34s CPU      1.72s WALL (      76 calls)

     Called by h_psi:
     add_vuspsi   :      0.50s CPU      0.49s WALL (      78 calls)

     General routines
     calbec       :      0.70s CPU      0.73s WALL (      90 calls)
     fft          :     16.26s CPU     16.54s WALL (     206 calls)
     ffts         :      0.41s CPU      0.42s WALL (      26 calls)
     fftw         :     22.27s CPU     22.30s WALL (    1880 calls)
     interpolate  :      2.72s CPU      2.75s WALL (      26 calls)
     davcio       :      0.00s CPU      1.09s WALL (       2 calls)
 
     Parallel routines
     fft_scatter  :      9.44s CPU      9.57s WALL (    2112 calls)
 
     PWSCF        :  1m24.01s CPU     2m 0.13s WALL

 
   This run was terminated on:  15:59:33   9Aug2013            

=------------------------------------------------------------------------------=
   JOB DONE.
=------------------------------------------------------------------------------=
